
Host: hrgrimsl-XPS-13-9370

Timers On : Wed Jul 10 12:51:04 2019
Timers Off: Wed Jul 10 12:51:04 2019

Wall Time:        0.40 seconds


-----------------------------------------------------------

***********************************************************

Host: hrgrimsl-XPS-13-9370

Timers On : Wed Jul 10 12:51:20 2019
Timers Off: Wed Jul 10 12:51:21 2019

Wall Time:        0.53 seconds


-----------------------------------------------------------

***********************************************************

Host: hrgrimsl-XPS-13-9370

Timers On : Wed Jul 10 12:51:29 2019
Timers Off: Wed Jul 10 12:51:29 2019

Wall Time:        0.48 seconds


-----------------------------------------------------------

***********************************************************

Host: hrgrimsl-XPS-13-9370

Timers On : Wed Jul 10 12:51:39 2019
Timers Off: Wed Jul 10 12:51:39 2019

Wall Time:        0.46 seconds


-----------------------------------------------------------

***********************************************************

Host: hrgrimsl-XPS-13-9370

Timers On : Wed Jul 10 12:51:48 2019
Timers Off: Wed Jul 10 12:51:49 2019

Wall Time:        0.46 seconds


-----------------------------------------------------------

***********************************************************

Host: hrgrimsl-XPS-13-9370

Timers On : Wed Jul 10 12:52:44 2019
Timers Off: Wed Jul 10 12:52:45 2019

Wall Time:        0.52 seconds


-----------------------------------------------------------

***********************************************************

Host: hrgrimsl-XPS-13-9370

Timers On : Wed Jul 10 12:54:39 2019
Timers Off: Wed Jul 10 12:54:40 2019

Wall Time:        0.46 seconds


-----------------------------------------------------------

***********************************************************

Host: hrgrimsl-XPS-13-9370

Timers On : Wed Jul 10 12:54:58 2019
Timers Off: Wed Jul 10 12:54:58 2019

Wall Time:        0.47 seconds


-----------------------------------------------------------

***********************************************************

Host: hrgrimsl-XPS-13-9370

Timers On : Wed Jul 10 12:55:18 2019
Timers Off: Wed Jul 10 12:55:19 2019

Wall Time:        0.46 seconds


-----------------------------------------------------------

***********************************************************

Host: hrgrimsl-XPS-13-9370

Timers On : Wed Jul 10 12:55:37 2019
Timers Off: Wed Jul 10 12:55:38 2019

Wall Time:        0.46 seconds


-----------------------------------------------------------

***********************************************************

Host: hrgrimsl-XPS-13-9370

Timers On : Wed Jul 10 12:55:53 2019
Timers Off: Wed Jul 10 12:55:54 2019

Wall Time:        0.46 seconds


-----------------------------------------------------------

***********************************************************

Host: hrgrimsl-XPS-13-9370

Timers On : Wed Jul 10 12:56:05 2019
Timers Off: Wed Jul 10 12:56:06 2019

Wall Time:        0.46 seconds


-----------------------------------------------------------

***********************************************************

Host: hrgrimsl-XPS-13-9370

Timers On : Wed Jul 10 12:57:26 2019
Timers Off: Wed Jul 10 12:57:26 2019

Wall Time:        0.45 seconds


-----------------------------------------------------------

***********************************************************

Host: hrgrimsl-XPS-13-9370

Timers On : Wed Jul 10 13:05:30 2019
Timers Off: Wed Jul 10 13:05:30 2019

Wall Time:        0.45 seconds


-----------------------------------------------------------

***********************************************************

Host: hrgrimsl-XPS-13-9370

Timers On : Wed Jul 10 13:06:13 2019
Timers Off: Wed Jul 10 13:06:14 2019

Wall Time:        0.46 seconds


-----------------------------------------------------------

***********************************************************

Host: hrgrimsl-XPS-13-9370

Timers On : Wed Jul 10 13:09:16 2019
Timers Off: Wed Jul 10 13:09:17 2019

Wall Time:        0.45 seconds


-----------------------------------------------------------

***********************************************************

Host: hrgrimsl-XPS-13-9370

Timers On : Wed Jul 10 13:11:39 2019
Timers Off: Wed Jul 10 13:11:40 2019

Wall Time:        0.47 seconds


-----------------------------------------------------------

***********************************************************

Host: hrgrimsl-XPS-13-9370

Timers On : Wed Jul 10 13:13:20 2019
Timers Off: Wed Jul 10 13:13:20 2019

Wall Time:        0.48 seconds


-----------------------------------------------------------

***********************************************************

Host: hrgrimsl-XPS-13-9370

Timers On : Wed Jul 10 13:13:42 2019
Timers Off: Wed Jul 10 13:13:43 2019

Wall Time:        0.48 seconds


-----------------------------------------------------------

***********************************************************

Host: hrgrimsl-XPS-13-9370

Timers On : Wed Jul 10 13:13:53 2019
Timers Off: Wed Jul 10 13:13:54 2019

Wall Time:        0.49 seconds


-----------------------------------------------------------

***********************************************************

Host: hrgrimsl-XPS-13-9370

Timers On : Wed Jul 10 13:14:45 2019
Timers Off: Wed Jul 10 13:14:45 2019

Wall Time:        0.46 seconds


-----------------------------------------------------------

***********************************************************

Host: hrgrimsl-XPS-13-9370

Timers On : Wed Jul 10 13:15:09 2019
Timers Off: Wed Jul 10 13:15:10 2019

Wall Time:        0.47 seconds


-----------------------------------------------------------

***********************************************************

Host: hrgrimsl-XPS-13-9370

Timers On : Wed Jul 10 13:15:18 2019
Timers Off: Wed Jul 10 13:15:18 2019

Wall Time:        0.46 seconds


-----------------------------------------------------------

***********************************************************

Host: hrgrimsl-XPS-13-9370

Timers On : Wed Jul 10 13:15:35 2019
Timers Off: Wed Jul 10 13:15:36 2019

Wall Time:        0.45 seconds


-----------------------------------------------------------

***********************************************************

Host: hrgrimsl-XPS-13-9370

Timers On : Wed Jul 10 13:16:02 2019
Timers Off: Wed Jul 10 13:16:03 2019

Wall Time:        0.50 seconds


-----------------------------------------------------------

***********************************************************

Host: hrgrimsl-XPS-13-9370

Timers On : Wed Jul 10 13:16:25 2019
Timers Off: Wed Jul 10 13:16:26 2019

Wall Time:        0.46 seconds


-----------------------------------------------------------

***********************************************************

Host: hrgrimsl-XPS-13-9370

Timers On : Wed Jul 10 13:16:53 2019
Timers Off: Wed Jul 10 13:16:54 2019

Wall Time:        0.45 seconds


-----------------------------------------------------------

***********************************************************

Host: hrgrimsl-XPS-13-9370

Timers On : Wed Jul 10 13:17:17 2019
Timers Off: Wed Jul 10 13:17:18 2019

Wall Time:        0.48 seconds


-----------------------------------------------------------

***********************************************************

Host: hrgrimsl-XPS-13-9370

Timers On : Wed Jul 10 13:17:29 2019
Timers Off: Wed Jul 10 13:17:30 2019

Wall Time:        0.46 seconds


-----------------------------------------------------------

***********************************************************

Host: hrgrimsl-XPS-13-9370

Timers On : Wed Jul 10 13:17:42 2019
Timers Off: Wed Jul 10 13:17:42 2019

Wall Time:        0.45 seconds


-----------------------------------------------------------

***********************************************************

Host: hrgrimsl-XPS-13-9370

Timers On : Wed Jul 10 13:19:23 2019
Timers Off: Wed Jul 10 13:20:21 2019

Wall Time:       57.79 seconds


-----------------------------------------------------------

***********************************************************

Host: hrgrimsl-XPS-13-9370

Timers On : Wed Jul 10 13:20:46 2019
Timers Off: Wed Jul 10 13:20:47 2019

Wall Time:        0.46 seconds


-----------------------------------------------------------

***********************************************************

Host: hrgrimsl-XPS-13-9370

Timers On : Wed Jul 10 13:25:19 2019
Timers Off: Wed Jul 10 13:25:19 2019

Wall Time:        0.46 seconds


-----------------------------------------------------------

***********************************************************

Host: hrgrimsl-XPS-13-9370

Timers On : Wed Jul 10 13:26:02 2019
Timers Off: Wed Jul 10 13:26:02 2019

Wall Time:        0.49 seconds


-----------------------------------------------------------

***********************************************************

Host: hrgrimsl-XPS-13-9370

Timers On : Wed Jul 10 13:26:16 2019
Timers Off: Wed Jul 10 13:26:16 2019

Wall Time:        0.46 seconds


-----------------------------------------------------------

***********************************************************

Host: hrgrimsl-XPS-13-9370

Timers On : Wed Jul 10 13:26:26 2019
Timers Off: Wed Jul 10 13:26:27 2019

Wall Time:        0.45 seconds


-----------------------------------------------------------

***********************************************************

Host: hrgrimsl-XPS-13-9370

Timers On : Wed Jul 10 13:26:38 2019
Timers Off: Wed Jul 10 13:26:38 2019

Wall Time:        0.46 seconds


-----------------------------------------------------------

***********************************************************

Host: hrgrimsl-XPS-13-9370

Timers On : Wed Jul 10 13:27:00 2019
Timers Off: Wed Jul 10 13:27:00 2019

Wall Time:        0.46 seconds


-----------------------------------------------------------

***********************************************************

Host: hrgrimsl-XPS-13-9370

Timers On : Wed Jul 10 13:27:19 2019
Timers Off: Wed Jul 10 13:27:19 2019

Wall Time:        0.46 seconds


-----------------------------------------------------------

***********************************************************

Host: hrgrimsl-XPS-13-9370

Timers On : Wed Jul 10 13:27:30 2019
Timers Off: Wed Jul 10 13:27:31 2019

Wall Time:        0.46 seconds


-----------------------------------------------------------

***********************************************************

Host: hrgrimsl-XPS-13-9370

Timers On : Wed Jul 10 13:27:49 2019
Timers Off: Wed Jul 10 13:27:50 2019

Wall Time:        0.46 seconds


-----------------------------------------------------------

***********************************************************

Host: hrgrimsl-XPS-13-9370

Timers On : Wed Jul 10 13:28:08 2019
Timers Off: Wed Jul 10 13:28:09 2019

Wall Time:        0.46 seconds


-----------------------------------------------------------

***********************************************************

Host: hrgrimsl-XPS-13-9370

Timers On : Wed Jul 10 13:28:58 2019
Timers Off: Wed Jul 10 13:28:58 2019

Wall Time:        0.46 seconds


-----------------------------------------------------------

***********************************************************

Host: hrgrimsl-XPS-13-9370

Timers On : Wed Jul 10 13:29:01 2019
Timers Off: Wed Jul 10 13:29:02 2019

Wall Time:        0.46 seconds


-----------------------------------------------------------

***********************************************************

Host: hrgrimsl-XPS-13-9370

Timers On : Wed Jul 10 13:29:30 2019
Timers Off: Wed Jul 10 13:29:31 2019

Wall Time:        0.68 seconds

DFH: initialize()           :      0.017u      0.017s      0.014w      1 calls
DFH: sparsity prep          :      0.000u      0.000s      0.003w      1 calls
DFH: AO Construction        :      0.000u      0.000s      0.000w      1 calls
DFH: AO-Met. Contraction    :      0.000u      0.000s      0.000w      1 calls
HF: Form H                  :      0.000u      0.000s      0.000w      1 calls
HF: Form S/X                :      0.000u      0.000s      0.000w      1 calls
HF: Guess                   :      0.033u      0.000s      0.018w      1 calls
SAD Guess                   :      0.017u      0.000s      0.016w      1 calls
HF: Form G                  :      0.000u      0.000s      0.000w      3 calls
JK: D                       :      0.000u      0.000s      0.000w      3 calls
JK: USO2AO                  :      0.000u      0.000s      0.000w      3 calls
JK: JK                      :      0.000u      0.000s      0.000w      3 calls
DFH: compute_JK()           :      0.000u      0.000s      0.000w      3 calls
DFH: Grabbing AOs           :      0.000u      0.000s      0.000w      3 calls
DFH: compute_J              :      0.000u      0.000s      0.000w      3 calls
DFH: compute_K              :      0.000u      0.000s      0.000w      3 calls
JK: AO2USO                  :      0.000u      0.000s      0.000w      3 calls
HF: Form F                  :      0.000u      0.000s      0.000w      3 calls
HF: DIIS                    :      0.000u      0.000s      0.000w      3 calls
DIISManager::add_entry      :      0.000u      0.000s      0.000w      2 calls
DIISManager::extrapolate    :      0.000u      0.000s      0.000w      1 calls
bMatrix setup               :      0.000u      0.000s      0.000w      1 calls
bMatrix pseudoinverse       :      0.000u      0.000s      0.000w      1 calls
New vector                  :      0.000u      0.000s      0.000w      1 calls
HF: Form C                  :      0.000u      0.000s      0.000w      3 calls
HF: Form D                  :      0.000u      0.000s      0.000w      3 calls

-----------------------------------------------------------
DFH: initialize()           :      0.017u      0.017s      0.014w      1 calls
| DFH: sparsity prep        :      0.000u      0.000s      0.003w      1 calls
| DFH: AO Construction      :      0.000u      0.000s      0.000w      1 calls
| DFH: AO-Met. Contraction  :      0.000u      0.000s      0.000w      1 calls
HF: Form H                  :      0.000u      0.000s      0.000w      1 calls
HF: Form S/X                :      0.000u      0.000s      0.000w      1 calls
HF: Guess                   :      0.033u      0.000s      0.018w      1 calls
| SAD Guess                 :      0.017u      0.000s      0.016w      1 calls
HF: Form G                  :      0.000u      0.000s      0.000w      3 calls
| JK: D                     :      0.000u      0.000s      0.000w      3 calls
| JK: USO2AO                :      0.000u      0.000s      0.000w      3 calls
| JK: JK                    :      0.000u      0.000s      0.000w      3 calls
| | DFH: compute_JK()       :      0.000u      0.000s      0.000w      3 calls
| | | DFH: Grabbing AOs     :      0.000u      0.000s      0.000w      3 calls
| | | DFH: compute_J        :      0.000u      0.000s      0.000w      3 calls
| | | DFH: compute_K        :      0.000u      0.000s      0.000w      3 calls
| JK: AO2USO                :      0.000u      0.000s      0.000w      3 calls
HF: Form F                  :      0.000u      0.000s      0.000w      3 calls
HF: DIIS                    :      0.000u      0.000s      0.000w      3 calls
| DIISManager::add_entry    :      0.000u      0.000s      0.000w      2 calls
| DIISManager::extrapolate  :      0.000u      0.000s      0.000w      1 calls
| | bMatrix setup           :      0.000u      0.000s      0.000w      1 calls
| | bMatrix pseudoinverse   :      0.000u      0.000s      0.000w      1 calls
| | New vector              :      0.000u      0.000s      0.000w      1 calls
HF: Form C                  :      0.000u      0.000s      0.000w      3 calls
HF: Form D                  :      0.000u      0.000s      0.000w      3 calls

***********************************************************

Host: hrgrimsl-XPS-13-9370

Timers On : Wed Jul 10 13:30:00 2019
Timers Off: Wed Jul 10 13:30:01 2019

Wall Time:        0.67 seconds

DFH: initialize()           :      0.050u      0.000s      0.029w      1 calls
DFH: sparsity prep          :      0.000u      0.000s      0.005w      1 calls
DFH: AO Construction        :      0.000u      0.000s      0.000w      1 calls
DFH: AO-Met. Contraction    :      0.000u      0.000s      0.000w      1 calls
HF: Form H                  :      0.000u      0.000s      0.000w      1 calls
HF: Form S/X                :      0.000u      0.000s      0.000w      1 calls
HF: Guess                   :      0.033u      0.000s      0.020w      1 calls
SAD Guess                   :      0.033u      0.000s      0.018w      1 calls
HF: Form G                  :      0.000u      0.000s      0.000w      3 calls
JK: D                       :      0.000u      0.000s      0.000w      3 calls
JK: USO2AO                  :      0.000u      0.000s      0.000w      3 calls
JK: JK                      :      0.000u      0.000s      0.000w      3 calls
DFH: compute_JK()           :      0.000u      0.000s      0.000w      3 calls
DFH: Grabbing AOs           :      0.000u      0.000s      0.000w      3 calls
DFH: compute_J              :      0.000u      0.000s      0.000w      3 calls
DFH: compute_K              :      0.000u      0.000s      0.000w      3 calls
JK: AO2USO                  :      0.000u      0.000s      0.000w      3 calls
HF: Form F                  :      0.000u      0.000s      0.000w      3 calls
HF: DIIS                    :      0.000u      0.000s      0.000w      3 calls
DIISManager::add_entry      :      0.000u      0.000s      0.000w      2 calls
DIISManager::extrapolate    :      0.000u      0.000s      0.000w      1 calls
bMatrix setup               :      0.000u      0.000s      0.000w      1 calls
bMatrix pseudoinverse       :      0.000u      0.000s      0.000w      1 calls
New vector                  :      0.000u      0.000s      0.000w      1 calls
HF: Form C                  :      0.000u      0.000s      0.000w      3 calls
HF: Form D                  :      0.000u      0.000s      0.000w      3 calls

-----------------------------------------------------------
DFH: initialize()           :      0.050u      0.000s      0.029w      1 calls
| DFH: sparsity prep        :      0.000u      0.000s      0.005w      1 calls
| DFH: AO Construction      :      0.000u      0.000s      0.000w      1 calls
| DFH: AO-Met. Contraction  :      0.000u      0.000s      0.000w      1 calls
HF: Form H                  :      0.000u      0.000s      0.000w      1 calls
HF: Form S/X                :      0.000u      0.000s      0.000w      1 calls
HF: Guess                   :      0.033u      0.000s      0.020w      1 calls
| SAD Guess                 :      0.033u      0.000s      0.018w      1 calls
HF: Form G                  :      0.000u      0.000s      0.000w      3 calls
| JK: D                     :      0.000u      0.000s      0.000w      3 calls
| JK: USO2AO                :      0.000u      0.000s      0.000w      3 calls
| JK: JK                    :      0.000u      0.000s      0.000w      3 calls
| | DFH: compute_JK()       :      0.000u      0.000s      0.000w      3 calls
| | | DFH: Grabbing AOs     :      0.000u      0.000s      0.000w      3 calls
| | | DFH: compute_J        :      0.000u      0.000s      0.000w      3 calls
| | | DFH: compute_K        :      0.000u      0.000s      0.000w      3 calls
| JK: AO2USO                :      0.000u      0.000s      0.000w      3 calls
HF: Form F                  :      0.000u      0.000s      0.000w      3 calls
HF: DIIS                    :      0.000u      0.000s      0.000w      3 calls
| DIISManager::add_entry    :      0.000u      0.000s      0.000w      2 calls
| DIISManager::extrapolate  :      0.000u      0.000s      0.000w      1 calls
| | bMatrix setup           :      0.000u      0.000s      0.000w      1 calls
| | bMatrix pseudoinverse   :      0.000u      0.000s      0.000w      1 calls
| | New vector              :      0.000u      0.000s      0.000w      1 calls
HF: Form C                  :      0.000u      0.000s      0.000w      3 calls
HF: Form D                  :      0.000u      0.000s      0.000w      3 calls

***********************************************************

Host: hrgrimsl-XPS-13-9370

Timers On : Wed Jul 10 13:30:12 2019
Timers Off: Wed Jul 10 13:30:13 2019

Wall Time:        0.65 seconds

DFH: initialize()           :      0.033u      0.000s      0.016w      1 calls
DFH: sparsity prep          :      0.017u      0.000s      0.004w      1 calls
DFH: AO Construction        :      0.000u      0.000s      0.000w      1 calls
DFH: AO-Met. Contraction    :      0.000u      0.000s      0.000w      1 calls
HF: Form H                  :      0.000u      0.000s      0.000w      1 calls
HF: Form S/X                :      0.000u      0.000s      0.000w      1 calls
HF: Guess                   :      0.033u      0.000s      0.019w      1 calls
SAD Guess                   :      0.033u      0.000s      0.017w      1 calls
HF: Form G                  :      0.000u      0.000s      0.000w      3 calls
JK: D                       :      0.000u      0.000s      0.000w      3 calls
JK: USO2AO                  :      0.000u      0.000s      0.000w      3 calls
JK: JK                      :      0.000u      0.000s      0.000w      3 calls
DFH: compute_JK()           :      0.000u      0.000s      0.000w      3 calls
DFH: Grabbing AOs           :      0.000u      0.000s      0.000w      3 calls
DFH: compute_J              :      0.000u      0.000s      0.000w      3 calls
DFH: compute_K              :      0.000u      0.000s      0.000w      3 calls
JK: AO2USO                  :      0.000u      0.000s      0.000w      3 calls
HF: Form F                  :      0.000u      0.000s      0.000w      3 calls
HF: DIIS                    :      0.000u      0.000s      0.000w      3 calls
DIISManager::add_entry      :      0.000u      0.000s      0.000w      2 calls
DIISManager::extrapolate    :      0.000u      0.000s      0.000w      1 calls
bMatrix setup               :      0.000u      0.000s      0.000w      1 calls
bMatrix pseudoinverse       :      0.000u      0.000s      0.000w      1 calls
New vector                  :      0.000u      0.000s      0.000w      1 calls
HF: Form C                  :      0.000u      0.000s      0.000w      3 calls
HF: Form D                  :      0.000u      0.000s      0.000w      3 calls

-----------------------------------------------------------
DFH: initialize()           :      0.033u      0.000s      0.016w      1 calls
| DFH: sparsity prep        :      0.017u      0.000s      0.004w      1 calls
| DFH: AO Construction      :      0.000u      0.000s      0.000w      1 calls
| DFH: AO-Met. Contraction  :      0.000u      0.000s      0.000w      1 calls
HF: Form H                  :      0.000u      0.000s      0.000w      1 calls
HF: Form S/X                :      0.000u      0.000s      0.000w      1 calls
HF: Guess                   :      0.033u      0.000s      0.019w      1 calls
| SAD Guess                 :      0.033u      0.000s      0.017w      1 calls
HF: Form G                  :      0.000u      0.000s      0.000w      3 calls
| JK: D                     :      0.000u      0.000s      0.000w      3 calls
| JK: USO2AO                :      0.000u      0.000s      0.000w      3 calls
| JK: JK                    :      0.000u      0.000s      0.000w      3 calls
| | DFH: compute_JK()       :      0.000u      0.000s      0.000w      3 calls
| | | DFH: Grabbing AOs     :      0.000u      0.000s      0.000w      3 calls
| | | DFH: compute_J        :      0.000u      0.000s      0.000w      3 calls
| | | DFH: compute_K        :      0.000u      0.000s      0.000w      3 calls
| JK: AO2USO                :      0.000u      0.000s      0.000w      3 calls
HF: Form F                  :      0.000u      0.000s      0.000w      3 calls
HF: DIIS                    :      0.000u      0.000s      0.000w      3 calls
| DIISManager::add_entry    :      0.000u      0.000s      0.000w      2 calls
| DIISManager::extrapolate  :      0.000u      0.000s      0.000w      1 calls
| | bMatrix setup           :      0.000u      0.000s      0.000w      1 calls
| | bMatrix pseudoinverse   :      0.000u      0.000s      0.000w      1 calls
| | New vector              :      0.000u      0.000s      0.000w      1 calls
HF: Form C                  :      0.000u      0.000s      0.000w      3 calls
HF: Form D                  :      0.000u      0.000s      0.000w      3 calls

***********************************************************

Host: hrgrimsl-XPS-13-9370

Timers On : Wed Jul 10 13:30:25 2019
Timers Off: Wed Jul 10 13:30:26 2019

Wall Time:        0.68 seconds

DFH: initialize()           :      0.050u      0.000s      0.031w      1 calls
DFH: sparsity prep          :      0.000u      0.000s      0.005w      1 calls
DFH: AO Construction        :      0.000u      0.000s      0.000w      1 calls
DFH: AO-Met. Contraction    :      0.000u      0.000s      0.000w      1 calls
HF: Form H                  :      0.000u      0.000s      0.000w      1 calls
HF: Form S/X                :      0.000u      0.000s      0.000w      1 calls
HF: Guess                   :      0.033u      0.000s      0.020w      1 calls
SAD Guess                   :      0.033u      0.000s      0.018w      1 calls
HF: Form G                  :      0.000u      0.000s      0.000w      3 calls
JK: D                       :      0.000u      0.000s      0.000w      3 calls
JK: USO2AO                  :      0.000u      0.000s      0.000w      3 calls
JK: JK                      :      0.000u      0.000s      0.000w      3 calls
DFH: compute_JK()           :      0.000u      0.000s      0.000w      3 calls
DFH: Grabbing AOs           :      0.000u      0.000s      0.000w      3 calls
DFH: compute_J              :      0.000u      0.000s      0.000w      3 calls
DFH: compute_K              :      0.000u      0.000s      0.000w      3 calls
JK: AO2USO                  :      0.000u      0.000s      0.000w      3 calls
HF: Form F                  :      0.000u      0.000s      0.000w      3 calls
HF: DIIS                    :      0.000u      0.000s      0.000w      3 calls
DIISManager::add_entry      :      0.000u      0.000s      0.000w      2 calls
DIISManager::extrapolate    :      0.000u      0.000s      0.000w      1 calls
bMatrix setup               :      0.000u      0.000s      0.000w      1 calls
bMatrix pseudoinverse       :      0.000u      0.000s      0.000w      1 calls
New vector                  :      0.000u      0.000s      0.000w      1 calls
HF: Form C                  :      0.000u      0.000s      0.000w      3 calls
HF: Form D                  :      0.000u      0.000s      0.000w      3 calls

-----------------------------------------------------------
DFH: initialize()           :      0.050u      0.000s      0.031w      1 calls
| DFH: sparsity prep        :      0.000u      0.000s      0.005w      1 calls
| DFH: AO Construction      :      0.000u      0.000s      0.000w      1 calls
| DFH: AO-Met. Contraction  :      0.000u      0.000s      0.000w      1 calls
HF: Form H                  :      0.000u      0.000s      0.000w      1 calls
HF: Form S/X                :      0.000u      0.000s      0.000w      1 calls
HF: Guess                   :      0.033u      0.000s      0.020w      1 calls
| SAD Guess                 :      0.033u      0.000s      0.018w      1 calls
HF: Form G                  :      0.000u      0.000s      0.000w      3 calls
| JK: D                     :      0.000u      0.000s      0.000w      3 calls
| JK: USO2AO                :      0.000u      0.000s      0.000w      3 calls
| JK: JK                    :      0.000u      0.000s      0.000w      3 calls
| | DFH: compute_JK()       :      0.000u      0.000s      0.000w      3 calls
| | | DFH: Grabbing AOs     :      0.000u      0.000s      0.000w      3 calls
| | | DFH: compute_J        :      0.000u      0.000s      0.000w      3 calls
| | | DFH: compute_K        :      0.000u      0.000s      0.000w      3 calls
| JK: AO2USO                :      0.000u      0.000s      0.000w      3 calls
HF: Form F                  :      0.000u      0.000s      0.000w      3 calls
HF: DIIS                    :      0.000u      0.000s      0.000w      3 calls
| DIISManager::add_entry    :      0.000u      0.000s      0.000w      2 calls
| DIISManager::extrapolate  :      0.000u      0.000s      0.000w      1 calls
| | bMatrix setup           :      0.000u      0.000s      0.000w      1 calls
| | bMatrix pseudoinverse   :      0.000u      0.000s      0.000w      1 calls
| | New vector              :      0.000u      0.000s      0.000w      1 calls
HF: Form C                  :      0.000u      0.000s      0.000w      3 calls
HF: Form D                  :      0.000u      0.000s      0.000w      3 calls

***********************************************************

Host: hrgrimsl-XPS-13-9370

Timers On : Wed Jul 10 13:31:03 2019
Timers Off: Wed Jul 10 13:31:04 2019

Wall Time:        0.63 seconds

DFH: initialize()           :      0.033u      0.000s      0.013w      1 calls
DFH: sparsity prep          :      0.000u      0.000s      0.003w      1 calls
DFH: AO Construction        :      0.000u      0.000s      0.000w      1 calls
DFH: AO-Met. Contraction    :      0.000u      0.000s      0.000w      1 calls
HF: Form H                  :      0.000u      0.000s      0.000w      1 calls
HF: Form S/X                :      0.000u      0.000s      0.000w      1 calls
HF: Guess                   :      0.017u      0.000s      0.017w      1 calls
SAD Guess                   :      0.017u      0.000s      0.016w      1 calls
HF: Form G                  :      0.000u      0.000s      0.000w      3 calls
JK: D                       :      0.000u      0.000s      0.000w      3 calls
JK: USO2AO                  :      0.000u      0.000s      0.000w      3 calls
JK: JK                      :      0.000u      0.000s      0.000w      3 calls
DFH: compute_JK()           :      0.000u      0.000s      0.000w      3 calls
DFH: Grabbing AOs           :      0.000u      0.000s      0.000w      3 calls
DFH: compute_J              :      0.000u      0.000s      0.000w      3 calls
DFH: compute_K              :      0.000u      0.000s      0.000w      3 calls
JK: AO2USO                  :      0.000u      0.000s      0.000w      3 calls
HF: Form F                  :      0.000u      0.000s      0.000w      3 calls
HF: DIIS                    :      0.000u      0.000s      0.000w      3 calls
DIISManager::add_entry      :      0.000u      0.000s      0.000w      2 calls
DIISManager::extrapolate    :      0.000u      0.000s      0.000w      1 calls
bMatrix setup               :      0.000u      0.000s      0.000w      1 calls
bMatrix pseudoinverse       :      0.000u      0.000s      0.000w      1 calls
New vector                  :      0.000u      0.000s      0.000w      1 calls
HF: Form C                  :      0.000u      0.000s      0.000w      3 calls
HF: Form D                  :      0.000u      0.000s      0.000w      3 calls

-----------------------------------------------------------
DFH: initialize()           :      0.033u      0.000s      0.013w      1 calls
| DFH: sparsity prep        :      0.000u      0.000s      0.003w      1 calls
| DFH: AO Construction      :      0.000u      0.000s      0.000w      1 calls
| DFH: AO-Met. Contraction  :      0.000u      0.000s      0.000w      1 calls
HF: Form H                  :      0.000u      0.000s      0.000w      1 calls
HF: Form S/X                :      0.000u      0.000s      0.000w      1 calls
HF: Guess                   :      0.017u      0.000s      0.017w      1 calls
| SAD Guess                 :      0.017u      0.000s      0.016w      1 calls
HF: Form G                  :      0.000u      0.000s      0.000w      3 calls
| JK: D                     :      0.000u      0.000s      0.000w      3 calls
| JK: USO2AO                :      0.000u      0.000s      0.000w      3 calls
| JK: JK                    :      0.000u      0.000s      0.000w      3 calls
| | DFH: compute_JK()       :      0.000u      0.000s      0.000w      3 calls
| | | DFH: Grabbing AOs     :      0.000u      0.000s      0.000w      3 calls
| | | DFH: compute_J        :      0.000u      0.000s      0.000w      3 calls
| | | DFH: compute_K        :      0.000u      0.000s      0.000w      3 calls
| JK: AO2USO                :      0.000u      0.000s      0.000w      3 calls
HF: Form F                  :      0.000u      0.000s      0.000w      3 calls
HF: DIIS                    :      0.000u      0.000s      0.000w      3 calls
| DIISManager::add_entry    :      0.000u      0.000s      0.000w      2 calls
| DIISManager::extrapolate  :      0.000u      0.000s      0.000w      1 calls
| | bMatrix setup           :      0.000u      0.000s      0.000w      1 calls
| | bMatrix pseudoinverse   :      0.000u      0.000s      0.000w      1 calls
| | New vector              :      0.000u      0.000s      0.000w      1 calls
HF: Form C                  :      0.000u      0.000s      0.000w      3 calls
HF: Form D                  :      0.000u      0.000s      0.000w      3 calls

***********************************************************

Host: hrgrimsl-XPS-13-9370

Timers On : Wed Jul 10 13:31:16 2019
Timers Off: Wed Jul 10 13:31:17 2019

Wall Time:        0.65 seconds

DFH: initialize()           :      0.017u      0.000s      0.015w      1 calls
DFH: sparsity prep          :      0.000u      0.000s      0.003w      1 calls
DFH: AO Construction        :      0.000u      0.000s      0.000w      1 calls
DFH: AO-Met. Contraction    :      0.000u      0.000s      0.000w      1 calls
HF: Form H                  :      0.000u      0.000s      0.002w      1 calls
HF: Form S/X                :      0.000u      0.000s      0.000w      1 calls
HF: Guess                   :      0.033u      0.000s      0.018w      1 calls
SAD Guess                   :      0.017u      0.000s      0.016w      1 calls
HF: Form G                  :      0.000u      0.000s      0.000w      3 calls
JK: D                       :      0.000u      0.000s      0.000w      3 calls
JK: USO2AO                  :      0.000u      0.000s      0.000w      3 calls
JK: JK                      :      0.000u      0.000s      0.000w      3 calls
DFH: compute_JK()           :      0.000u      0.000s      0.000w      3 calls
DFH: Grabbing AOs           :      0.000u      0.000s      0.000w      3 calls
DFH: compute_J              :      0.000u      0.000s      0.000w      3 calls
DFH: compute_K              :      0.000u      0.000s      0.000w      3 calls
JK: AO2USO                  :      0.000u      0.000s      0.000w      3 calls
HF: Form F                  :      0.000u      0.000s      0.000w      3 calls
HF: DIIS                    :      0.000u      0.000s      0.000w      3 calls
DIISManager::add_entry      :      0.000u      0.000s      0.000w      2 calls
DIISManager::extrapolate    :      0.000u      0.000s      0.000w      1 calls
bMatrix setup               :      0.000u      0.000s      0.000w      1 calls
bMatrix pseudoinverse       :      0.000u      0.000s      0.000w      1 calls
New vector                  :      0.000u      0.000s      0.000w      1 calls
HF: Form C                  :      0.000u      0.000s      0.000w      3 calls
HF: Form D                  :      0.000u      0.000s      0.000w      3 calls

-----------------------------------------------------------
DFH: initialize()           :      0.017u      0.000s      0.015w      1 calls
| DFH: sparsity prep        :      0.000u      0.000s      0.003w      1 calls
| DFH: AO Construction      :      0.000u      0.000s      0.000w      1 calls
| DFH: AO-Met. Contraction  :      0.000u      0.000s      0.000w      1 calls
HF: Form H                  :      0.000u      0.000s      0.002w      1 calls
HF: Form S/X                :      0.000u      0.000s      0.000w      1 calls
HF: Guess                   :      0.033u      0.000s      0.018w      1 calls
| SAD Guess                 :      0.017u      0.000s      0.016w      1 calls
HF: Form G                  :      0.000u      0.000s      0.000w      3 calls
| JK: D                     :      0.000u      0.000s      0.000w      3 calls
| JK: USO2AO                :      0.000u      0.000s      0.000w      3 calls
| JK: JK                    :      0.000u      0.000s      0.000w      3 calls
| | DFH: compute_JK()       :      0.000u      0.000s      0.000w      3 calls
| | | DFH: Grabbing AOs     :      0.000u      0.000s      0.000w      3 calls
| | | DFH: compute_J        :      0.000u      0.000s      0.000w      3 calls
| | | DFH: compute_K        :      0.000u      0.000s      0.000w      3 calls
| JK: AO2USO                :      0.000u      0.000s      0.000w      3 calls
HF: Form F                  :      0.000u      0.000s      0.000w      3 calls
HF: DIIS                    :      0.000u      0.000s      0.000w      3 calls
| DIISManager::add_entry    :      0.000u      0.000s      0.000w      2 calls
| DIISManager::extrapolate  :      0.000u      0.000s      0.000w      1 calls
| | bMatrix setup           :      0.000u      0.000s      0.000w      1 calls
| | bMatrix pseudoinverse   :      0.000u      0.000s      0.000w      1 calls
| | New vector              :      0.000u      0.000s      0.000w      1 calls
HF: Form C                  :      0.000u      0.000s      0.000w      3 calls
HF: Form D                  :      0.000u      0.000s      0.000w      3 calls

***********************************************************

Host: hrgrimsl-XPS-13-9370

Timers On : Wed Jul 10 13:31:41 2019
Timers Off: Wed Jul 10 13:31:42 2019

Wall Time:        0.66 seconds

DFH: initialize()           :      0.017u      0.000s      0.015w      1 calls
DFH: sparsity prep          :      0.017u      0.000s      0.004w      1 calls
DFH: AO Construction        :      0.000u      0.000s      0.000w      1 calls
DFH: AO-Met. Contraction    :      0.000u      0.000s      0.000w      1 calls
HF: Form H                  :      0.000u      0.000s      0.000w      1 calls
HF: Form S/X                :      0.000u      0.000s      0.000w      1 calls
HF: Guess                   :      0.033u      0.000s      0.017w      1 calls
SAD Guess                   :      0.033u      0.000s      0.016w      1 calls
HF: Form G                  :      0.000u      0.000s      0.000w      3 calls
JK: D                       :      0.000u      0.000s      0.000w      3 calls
JK: USO2AO                  :      0.000u      0.000s      0.000w      3 calls
JK: JK                      :      0.000u      0.000s      0.000w      3 calls
DFH: compute_JK()           :      0.000u      0.000s      0.000w      3 calls
DFH: Grabbing AOs           :      0.000u      0.000s      0.000w      3 calls
DFH: compute_J              :      0.000u      0.000s      0.000w      3 calls
DFH: compute_K              :      0.000u      0.000s      0.000w      3 calls
JK: AO2USO                  :      0.000u      0.000s      0.000w      3 calls
HF: Form F                  :      0.000u      0.000s      0.000w      3 calls
HF: DIIS                    :      0.000u      0.000s      0.000w      3 calls
DIISManager::add_entry      :      0.000u      0.000s      0.000w      2 calls
DIISManager::extrapolate    :      0.000u      0.000s      0.000w      1 calls
bMatrix setup               :      0.000u      0.000s      0.000w      1 calls
bMatrix pseudoinverse       :      0.000u      0.000s      0.000w      1 calls
New vector                  :      0.000u      0.000s      0.000w      1 calls
HF: Form C                  :      0.000u      0.000s      0.000w      3 calls
HF: Form D                  :      0.000u      0.000s      0.000w      3 calls

-----------------------------------------------------------
DFH: initialize()           :      0.017u      0.000s      0.015w      1 calls
| DFH: sparsity prep        :      0.017u      0.000s      0.004w      1 calls
| DFH: AO Construction      :      0.000u      0.000s      0.000w      1 calls
| DFH: AO-Met. Contraction  :      0.000u      0.000s      0.000w      1 calls
HF: Form H                  :      0.000u      0.000s      0.000w      1 calls
HF: Form S/X                :      0.000u      0.000s      0.000w      1 calls
HF: Guess                   :      0.033u      0.000s      0.017w      1 calls
| SAD Guess                 :      0.033u      0.000s      0.016w      1 calls
HF: Form G                  :      0.000u      0.000s      0.000w      3 calls
| JK: D                     :      0.000u      0.000s      0.000w      3 calls
| JK: USO2AO                :      0.000u      0.000s      0.000w      3 calls
| JK: JK                    :      0.000u      0.000s      0.000w      3 calls
| | DFH: compute_JK()       :      0.000u      0.000s      0.000w      3 calls
| | | DFH: Grabbing AOs     :      0.000u      0.000s      0.000w      3 calls
| | | DFH: compute_J        :      0.000u      0.000s      0.000w      3 calls
| | | DFH: compute_K        :      0.000u      0.000s      0.000w      3 calls
| JK: AO2USO                :      0.000u      0.000s      0.000w      3 calls
HF: Form F                  :      0.000u      0.000s      0.000w      3 calls
HF: DIIS                    :      0.000u      0.000s      0.000w      3 calls
| DIISManager::add_entry    :      0.000u      0.000s      0.000w      2 calls
| DIISManager::extrapolate  :      0.000u      0.000s      0.000w      1 calls
| | bMatrix setup           :      0.000u      0.000s      0.000w      1 calls
| | bMatrix pseudoinverse   :      0.000u      0.000s      0.000w      1 calls
| | New vector              :      0.000u      0.000s      0.000w      1 calls
HF: Form C                  :      0.000u      0.000s      0.000w      3 calls
HF: Form D                  :      0.000u      0.000s      0.000w      3 calls

***********************************************************

Host: hrgrimsl-XPS-13-9370

Timers On : Wed Jul 10 13:33:11 2019
Timers Off: Wed Jul 10 13:33:11 2019

Wall Time:        0.69 seconds

DFH: initialize()           :      0.050u      0.000s      0.031w      1 calls
DFH: sparsity prep          :      0.000u      0.000s      0.006w      1 calls
DFH: AO Construction        :      0.000u      0.000s      0.000w      1 calls
DFH: AO-Met. Contraction    :      0.000u      0.000s      0.000w      1 calls
HF: Form H                  :      0.000u      0.000s      0.000w      1 calls
HF: Form S/X                :      0.000u      0.000s      0.000w      1 calls
HF: Guess                   :      0.033u      0.000s      0.020w      1 calls
SAD Guess                   :      0.033u      0.000s      0.017w      1 calls
HF: Form G                  :      0.000u      0.000s      0.000w      3 calls
JK: D                       :      0.000u      0.000s      0.000w      3 calls
JK: USO2AO                  :      0.000u      0.000s      0.000w      3 calls
JK: JK                      :      0.000u      0.000s      0.000w      3 calls
DFH: compute_JK()           :      0.000u      0.000s      0.000w      3 calls
DFH: Grabbing AOs           :      0.000u      0.000s      0.000w      3 calls
DFH: compute_J              :      0.000u      0.000s      0.000w      3 calls
DFH: compute_K              :      0.000u      0.000s      0.000w      3 calls
JK: AO2USO                  :      0.000u      0.000s      0.000w      3 calls
HF: Form F                  :      0.000u      0.000s      0.000w      3 calls
HF: DIIS                    :      0.000u      0.000s      0.000w      3 calls
DIISManager::add_entry      :      0.000u      0.000s      0.000w      2 calls
DIISManager::extrapolate    :      0.000u      0.000s      0.000w      1 calls
bMatrix setup               :      0.000u      0.000s      0.000w      1 calls
bMatrix pseudoinverse       :      0.000u      0.000s      0.000w      1 calls
New vector                  :      0.000u      0.000s      0.000w      1 calls
HF: Form C                  :      0.000u      0.000s      0.000w      3 calls
HF: Form D                  :      0.000u      0.000s      0.000w      3 calls

-----------------------------------------------------------
DFH: initialize()           :      0.050u      0.000s      0.031w      1 calls
| DFH: sparsity prep        :      0.000u      0.000s      0.006w      1 calls
| DFH: AO Construction      :      0.000u      0.000s      0.000w      1 calls
| DFH: AO-Met. Contraction  :      0.000u      0.000s      0.000w      1 calls
HF: Form H                  :      0.000u      0.000s      0.000w      1 calls
HF: Form S/X                :      0.000u      0.000s      0.000w      1 calls
HF: Guess                   :      0.033u      0.000s      0.020w      1 calls
| SAD Guess                 :      0.033u      0.000s      0.017w      1 calls
HF: Form G                  :      0.000u      0.000s      0.000w      3 calls
| JK: D                     :      0.000u      0.000s      0.000w      3 calls
| JK: USO2AO                :      0.000u      0.000s      0.000w      3 calls
| JK: JK                    :      0.000u      0.000s      0.000w      3 calls
| | DFH: compute_JK()       :      0.000u      0.000s      0.000w      3 calls
| | | DFH: Grabbing AOs     :      0.000u      0.000s      0.000w      3 calls
| | | DFH: compute_J        :      0.000u      0.000s      0.000w      3 calls
| | | DFH: compute_K        :      0.000u      0.000s      0.000w      3 calls
| JK: AO2USO                :      0.000u      0.000s      0.000w      3 calls
HF: Form F                  :      0.000u      0.000s      0.000w      3 calls
HF: DIIS                    :      0.000u      0.000s      0.000w      3 calls
| DIISManager::add_entry    :      0.000u      0.000s      0.000w      2 calls
| DIISManager::extrapolate  :      0.000u      0.000s      0.000w      1 calls
| | bMatrix setup           :      0.000u      0.000s      0.000w      1 calls
| | bMatrix pseudoinverse   :      0.000u      0.000s      0.000w      1 calls
| | New vector              :      0.000u      0.000s      0.000w      1 calls
HF: Form C                  :      0.000u      0.000s      0.000w      3 calls
HF: Form D                  :      0.000u      0.000s      0.000w      3 calls

***********************************************************

Host: hrgrimsl-XPS-13-9370

Timers On : Wed Jul 10 13:34:18 2019
Timers Off: Wed Jul 10 13:34:19 2019

Wall Time:        0.67 seconds

DFH: initialize()           :      0.050u      0.000s      0.029w      1 calls
DFH: sparsity prep          :      0.000u      0.000s      0.005w      1 calls
DFH: AO Construction        :      0.000u      0.000s      0.000w      1 calls
DFH: AO-Met. Contraction    :      0.000u      0.000s      0.000w      1 calls
HF: Form H                  :      0.000u      0.000s      0.000w      1 calls
HF: Form S/X                :      0.000u      0.000s      0.000w      1 calls
HF: Guess                   :      0.033u      0.000s      0.019w      1 calls
SAD Guess                   :      0.033u      0.000s      0.017w      1 calls
HF: Form G                  :      0.000u      0.000s      0.000w      3 calls
JK: D                       :      0.000u      0.000s      0.000w      3 calls
JK: USO2AO                  :      0.000u      0.000s      0.000w      3 calls
JK: JK                      :      0.000u      0.000s      0.000w      3 calls
DFH: compute_JK()           :      0.000u      0.000s      0.000w      3 calls
DFH: Grabbing AOs           :      0.000u      0.000s      0.000w      3 calls
DFH: compute_J              :      0.000u      0.000s      0.000w      3 calls
DFH: compute_K              :      0.000u      0.000s      0.000w      3 calls
JK: AO2USO                  :      0.000u      0.000s      0.000w      3 calls
HF: Form F                  :      0.000u      0.000s      0.000w      3 calls
HF: DIIS                    :      0.000u      0.000s      0.000w      3 calls
DIISManager::add_entry      :      0.000u      0.000s      0.000w      2 calls
DIISManager::extrapolate    :      0.000u      0.000s      0.000w      1 calls
bMatrix setup               :      0.000u      0.000s      0.000w      1 calls
bMatrix pseudoinverse       :      0.000u      0.000s      0.000w      1 calls
New vector                  :      0.000u      0.000s      0.000w      1 calls
HF: Form C                  :      0.000u      0.000s      0.000w      3 calls
HF: Form D                  :      0.000u      0.000s      0.000w      3 calls

-----------------------------------------------------------
DFH: initialize()           :      0.050u      0.000s      0.029w      1 calls
| DFH: sparsity prep        :      0.000u      0.000s      0.005w      1 calls
| DFH: AO Construction      :      0.000u      0.000s      0.000w      1 calls
| DFH: AO-Met. Contraction  :      0.000u      0.000s      0.000w      1 calls
HF: Form H                  :      0.000u      0.000s      0.000w      1 calls
HF: Form S/X                :      0.000u      0.000s      0.000w      1 calls
HF: Guess                   :      0.033u      0.000s      0.019w      1 calls
| SAD Guess                 :      0.033u      0.000s      0.017w      1 calls
HF: Form G                  :      0.000u      0.000s      0.000w      3 calls
| JK: D                     :      0.000u      0.000s      0.000w      3 calls
| JK: USO2AO                :      0.000u      0.000s      0.000w      3 calls
| JK: JK                    :      0.000u      0.000s      0.000w      3 calls
| | DFH: compute_JK()       :      0.000u      0.000s      0.000w      3 calls
| | | DFH: Grabbing AOs     :      0.000u      0.000s      0.000w      3 calls
| | | DFH: compute_J        :      0.000u      0.000s      0.000w      3 calls
| | | DFH: compute_K        :      0.000u      0.000s      0.000w      3 calls
| JK: AO2USO                :      0.000u      0.000s      0.000w      3 calls
HF: Form F                  :      0.000u      0.000s      0.000w      3 calls
HF: DIIS                    :      0.000u      0.000s      0.000w      3 calls
| DIISManager::add_entry    :      0.000u      0.000s      0.000w      2 calls
| DIISManager::extrapolate  :      0.000u      0.000s      0.000w      1 calls
| | bMatrix setup           :      0.000u      0.000s      0.000w      1 calls
| | bMatrix pseudoinverse   :      0.000u      0.000s      0.000w      1 calls
| | New vector              :      0.000u      0.000s      0.000w      1 calls
HF: Form C                  :      0.000u      0.000s      0.000w      3 calls
HF: Form D                  :      0.000u      0.000s      0.000w      3 calls

***********************************************************

Host: hrgrimsl-XPS-13-9370

Timers On : Wed Jul 10 13:34:27 2019
Timers Off: Wed Jul 10 13:34:27 2019

Wall Time:        0.65 seconds

DFH: initialize()           :      0.017u      0.000s      0.015w      1 calls
DFH: sparsity prep          :      0.017u      0.000s      0.003w      1 calls
DFH: AO Construction        :      0.000u      0.000s      0.000w      1 calls
DFH: AO-Met. Contraction    :      0.000u      0.000s      0.000w      1 calls
HF: Form H                  :      0.000u      0.000s      0.001w      1 calls
HF: Form S/X                :      0.000u      0.000s      0.000w      1 calls
HF: Guess                   :      0.033u      0.000s      0.017w      1 calls
SAD Guess                   :      0.033u      0.000s      0.016w      1 calls
HF: Form G                  :      0.000u      0.000s      0.000w      3 calls
JK: D                       :      0.000u      0.000s      0.000w      3 calls
JK: USO2AO                  :      0.000u      0.000s      0.000w      3 calls
JK: JK                      :      0.000u      0.000s      0.000w      3 calls
DFH: compute_JK()           :      0.000u      0.000s      0.000w      3 calls
DFH: Grabbing AOs           :      0.000u      0.000s      0.000w      3 calls
DFH: compute_J              :      0.000u      0.000s      0.000w      3 calls
DFH: compute_K              :      0.000u      0.000s      0.000w      3 calls
JK: AO2USO                  :      0.000u      0.000s      0.000w      3 calls
HF: Form F                  :      0.000u      0.000s      0.000w      3 calls
HF: DIIS                    :      0.000u      0.000s      0.000w      3 calls
DIISManager::add_entry      :      0.000u      0.000s      0.000w      2 calls
DIISManager::extrapolate    :      0.000u      0.000s      0.000w      1 calls
bMatrix setup               :      0.000u      0.000s      0.000w      1 calls
bMatrix pseudoinverse       :      0.000u      0.000s      0.000w      1 calls
New vector                  :      0.000u      0.000s      0.000w      1 calls
HF: Form C                  :      0.000u      0.000s      0.000w      3 calls
HF: Form D                  :      0.000u      0.000s      0.000w      3 calls

-----------------------------------------------------------
DFH: initialize()           :      0.017u      0.000s      0.015w      1 calls
| DFH: sparsity prep        :      0.017u      0.000s      0.003w      1 calls
| DFH: AO Construction      :      0.000u      0.000s      0.000w      1 calls
| DFH: AO-Met. Contraction  :      0.000u      0.000s      0.000w      1 calls
HF: Form H                  :      0.000u      0.000s      0.001w      1 calls
HF: Form S/X                :      0.000u      0.000s      0.000w      1 calls
HF: Guess                   :      0.033u      0.000s      0.017w      1 calls
| SAD Guess                 :      0.033u      0.000s      0.016w      1 calls
HF: Form G                  :      0.000u      0.000s      0.000w      3 calls
| JK: D                     :      0.000u      0.000s      0.000w      3 calls
| JK: USO2AO                :      0.000u      0.000s      0.000w      3 calls
| JK: JK                    :      0.000u      0.000s      0.000w      3 calls
| | DFH: compute_JK()       :      0.000u      0.000s      0.000w      3 calls
| | | DFH: Grabbing AOs     :      0.000u      0.000s      0.000w      3 calls
| | | DFH: compute_J        :      0.000u      0.000s      0.000w      3 calls
| | | DFH: compute_K        :      0.000u      0.000s      0.000w      3 calls
| JK: AO2USO                :      0.000u      0.000s      0.000w      3 calls
HF: Form F                  :      0.000u      0.000s      0.000w      3 calls
HF: DIIS                    :      0.000u      0.000s      0.000w      3 calls
| DIISManager::add_entry    :      0.000u      0.000s      0.000w      2 calls
| DIISManager::extrapolate  :      0.000u      0.000s      0.000w      1 calls
| | bMatrix setup           :      0.000u      0.000s      0.000w      1 calls
| | bMatrix pseudoinverse   :      0.000u      0.000s      0.000w      1 calls
| | New vector              :      0.000u      0.000s      0.000w      1 calls
HF: Form C                  :      0.000u      0.000s      0.000w      3 calls
HF: Form D                  :      0.000u      0.000s      0.000w      3 calls

***********************************************************

Host: hrgrimsl-XPS-13-9370

Timers On : Wed Jul 10 13:34:38 2019
Timers Off: Wed Jul 10 13:34:39 2019

Wall Time:        0.67 seconds

DFH: initialize()           :      0.050u      0.000s      0.027w      1 calls
DFH: sparsity prep          :      0.017u      0.000s      0.005w      1 calls
DFH: AO Construction        :      0.000u      0.000s      0.000w      1 calls
DFH: AO-Met. Contraction    :      0.000u      0.000s      0.000w      1 calls
HF: Form H                  :      0.000u      0.000s      0.000w      1 calls
HF: Form S/X                :      0.000u      0.000s      0.000w      1 calls
HF: Guess                   :      0.017u      0.000s      0.019w      1 calls
SAD Guess                   :      0.017u      0.000s      0.017w      1 calls
HF: Form G                  :      0.000u      0.000s      0.000w      3 calls
JK: D                       :      0.000u      0.000s      0.000w      3 calls
JK: USO2AO                  :      0.000u      0.000s      0.000w      3 calls
JK: JK                      :      0.000u      0.000s      0.000w      3 calls
DFH: compute_JK()           :      0.000u      0.000s      0.000w      3 calls
DFH: Grabbing AOs           :      0.000u      0.000s      0.000w      3 calls
DFH: compute_J              :      0.000u      0.000s      0.000w      3 calls
DFH: compute_K              :      0.000u      0.000s      0.000w      3 calls
JK: AO2USO                  :      0.000u      0.000s      0.000w      3 calls
HF: Form F                  :      0.000u      0.000s      0.000w      3 calls
HF: DIIS                    :      0.000u      0.000s      0.000w      3 calls
DIISManager::add_entry      :      0.000u      0.000s      0.000w      2 calls
DIISManager::extrapolate    :      0.000u      0.000s      0.000w      1 calls
bMatrix setup               :      0.000u      0.000s      0.000w      1 calls
bMatrix pseudoinverse       :      0.000u      0.000s      0.000w      1 calls
New vector                  :      0.000u      0.000s      0.000w      1 calls
HF: Form C                  :      0.000u      0.000s      0.000w      3 calls
HF: Form D                  :      0.000u      0.000s      0.000w      3 calls

-----------------------------------------------------------
DFH: initialize()           :      0.050u      0.000s      0.027w      1 calls
| DFH: sparsity prep        :      0.017u      0.000s      0.005w      1 calls
| DFH: AO Construction      :      0.000u      0.000s      0.000w      1 calls
| DFH: AO-Met. Contraction  :      0.000u      0.000s      0.000w      1 calls
HF: Form H                  :      0.000u      0.000s      0.000w      1 calls
HF: Form S/X                :      0.000u      0.000s      0.000w      1 calls
HF: Guess                   :      0.017u      0.000s      0.019w      1 calls
| SAD Guess                 :      0.017u      0.000s      0.017w      1 calls
HF: Form G                  :      0.000u      0.000s      0.000w      3 calls
| JK: D                     :      0.000u      0.000s      0.000w      3 calls
| JK: USO2AO                :      0.000u      0.000s      0.000w      3 calls
| JK: JK                    :      0.000u      0.000s      0.000w      3 calls
| | DFH: compute_JK()       :      0.000u      0.000s      0.000w      3 calls
| | | DFH: Grabbing AOs     :      0.000u      0.000s      0.000w      3 calls
| | | DFH: compute_J        :      0.000u      0.000s      0.000w      3 calls
| | | DFH: compute_K        :      0.000u      0.000s      0.000w      3 calls
| JK: AO2USO                :      0.000u      0.000s      0.000w      3 calls
HF: Form F                  :      0.000u      0.000s      0.000w      3 calls
HF: DIIS                    :      0.000u      0.000s      0.000w      3 calls
| DIISManager::add_entry    :      0.000u      0.000s      0.000w      2 calls
| DIISManager::extrapolate  :      0.000u      0.000s      0.000w      1 calls
| | bMatrix setup           :      0.000u      0.000s      0.000w      1 calls
| | bMatrix pseudoinverse   :      0.000u      0.000s      0.000w      1 calls
| | New vector              :      0.000u      0.000s      0.000w      1 calls
HF: Form C                  :      0.000u      0.000s      0.000w      3 calls
HF: Form D                  :      0.000u      0.000s      0.000w      3 calls

***********************************************************

Host: hrgrimsl-XPS-13-9370

Timers On : Wed Jul 10 13:34:49 2019
Timers Off: Wed Jul 10 13:34:50 2019

Wall Time:        0.63 seconds

DFH: initialize()           :      0.017u      0.000s      0.013w      1 calls
DFH: sparsity prep          :      0.000u      0.000s      0.003w      1 calls
DFH: AO Construction        :      0.000u      0.000s      0.000w      1 calls
DFH: AO-Met. Contraction    :      0.000u      0.000s      0.000w      1 calls
HF: Form H                  :      0.000u      0.000s      0.000w      1 calls
HF: Form S/X                :      0.000u      0.000s      0.000w      1 calls
HF: Guess                   :      0.033u      0.000s      0.017w      1 calls
SAD Guess                   :      0.033u      0.000s      0.016w      1 calls
HF: Form G                  :      0.000u      0.000s      0.000w      3 calls
JK: D                       :      0.000u      0.000s      0.000w      3 calls
JK: USO2AO                  :      0.000u      0.000s      0.000w      3 calls
JK: JK                      :      0.000u      0.000s      0.000w      3 calls
DFH: compute_JK()           :      0.000u      0.000s      0.000w      3 calls
DFH: Grabbing AOs           :      0.000u      0.000s      0.000w      3 calls
DFH: compute_J              :      0.000u      0.000s      0.000w      3 calls
DFH: compute_K              :      0.000u      0.000s      0.000w      3 calls
JK: AO2USO                  :      0.000u      0.000s      0.000w      3 calls
HF: Form F                  :      0.000u      0.000s      0.000w      3 calls
HF: DIIS                    :      0.000u      0.000s      0.000w      3 calls
DIISManager::add_entry      :      0.000u      0.000s      0.000w      2 calls
DIISManager::extrapolate    :      0.000u      0.000s      0.000w      1 calls
bMatrix setup               :      0.000u      0.000s      0.000w      1 calls
bMatrix pseudoinverse       :      0.000u      0.000s      0.000w      1 calls
New vector                  :      0.000u      0.000s      0.000w      1 calls
HF: Form C                  :      0.000u      0.000s      0.000w      3 calls
HF: Form D                  :      0.000u      0.000s      0.000w      3 calls

-----------------------------------------------------------
DFH: initialize()           :      0.017u      0.000s      0.013w      1 calls
| DFH: sparsity prep        :      0.000u      0.000s      0.003w      1 calls
| DFH: AO Construction      :      0.000u      0.000s      0.000w      1 calls
| DFH: AO-Met. Contraction  :      0.000u      0.000s      0.000w      1 calls
HF: Form H                  :      0.000u      0.000s      0.000w      1 calls
HF: Form S/X                :      0.000u      0.000s      0.000w      1 calls
HF: Guess                   :      0.033u      0.000s      0.017w      1 calls
| SAD Guess                 :      0.033u      0.000s      0.016w      1 calls
HF: Form G                  :      0.000u      0.000s      0.000w      3 calls
| JK: D                     :      0.000u      0.000s      0.000w      3 calls
| JK: USO2AO                :      0.000u      0.000s      0.000w      3 calls
| JK: JK                    :      0.000u      0.000s      0.000w      3 calls
| | DFH: compute_JK()       :      0.000u      0.000s      0.000w      3 calls
| | | DFH: Grabbing AOs     :      0.000u      0.000s      0.000w      3 calls
| | | DFH: compute_J        :      0.000u      0.000s      0.000w      3 calls
| | | DFH: compute_K        :      0.000u      0.000s      0.000w      3 calls
| JK: AO2USO                :      0.000u      0.000s      0.000w      3 calls
HF: Form F                  :      0.000u      0.000s      0.000w      3 calls
HF: DIIS                    :      0.000u      0.000s      0.000w      3 calls
| DIISManager::add_entry    :      0.000u      0.000s      0.000w      2 calls
| DIISManager::extrapolate  :      0.000u      0.000s      0.000w      1 calls
| | bMatrix setup           :      0.000u      0.000s      0.000w      1 calls
| | bMatrix pseudoinverse   :      0.000u      0.000s      0.000w      1 calls
| | New vector              :      0.000u      0.000s      0.000w      1 calls
HF: Form C                  :      0.000u      0.000s      0.000w      3 calls
HF: Form D                  :      0.000u      0.000s      0.000w      3 calls

***********************************************************

Host: hrgrimsl-XPS-13-9370

Timers On : Wed Jul 10 13:35:02 2019
Timers Off: Wed Jul 10 13:35:03 2019

Wall Time:        0.65 seconds

DFH: initialize()           :      0.017u      0.000s      0.016w      1 calls
DFH: sparsity prep          :      0.000u      0.000s      0.004w      1 calls
DFH: AO Construction        :      0.000u      0.000s      0.000w      1 calls
DFH: AO-Met. Contraction    :      0.000u      0.000s      0.000w      1 calls
HF: Form H                  :      0.000u      0.000s      0.000w      1 calls
HF: Form S/X                :      0.000u      0.000s      0.000w      1 calls
HF: Guess                   :      0.033u      0.000s      0.018w      1 calls
SAD Guess                   :      0.017u      0.000s      0.017w      1 calls
HF: Form G                  :      0.000u      0.000s      0.000w      3 calls
JK: D                       :      0.000u      0.000s      0.000w      3 calls
JK: USO2AO                  :      0.000u      0.000s      0.000w      3 calls
JK: JK                      :      0.000u      0.000s      0.000w      3 calls
DFH: compute_JK()           :      0.000u      0.000s      0.000w      3 calls
DFH: Grabbing AOs           :      0.000u      0.000s      0.000w      3 calls
DFH: compute_J              :      0.000u      0.000s      0.000w      3 calls
DFH: compute_K              :      0.000u      0.000s      0.000w      3 calls
JK: AO2USO                  :      0.000u      0.000s      0.000w      3 calls
HF: Form F                  :      0.000u      0.000s      0.000w      3 calls
HF: DIIS                    :      0.000u      0.000s      0.000w      3 calls
DIISManager::add_entry      :      0.000u      0.000s      0.000w      2 calls
DIISManager::extrapolate    :      0.000u      0.000s      0.000w      1 calls
bMatrix setup               :      0.000u      0.000s      0.000w      1 calls
bMatrix pseudoinverse       :      0.000u      0.000s      0.000w      1 calls
New vector                  :      0.000u      0.000s      0.000w      1 calls
HF: Form C                  :      0.000u      0.000s      0.000w      3 calls
HF: Form D                  :      0.000u      0.000s      0.000w      3 calls

-----------------------------------------------------------
DFH: initialize()           :      0.017u      0.000s      0.016w      1 calls
| DFH: sparsity prep        :      0.000u      0.000s      0.004w      1 calls
| DFH: AO Construction      :      0.000u      0.000s      0.000w      1 calls
| DFH: AO-Met. Contraction  :      0.000u      0.000s      0.000w      1 calls
HF: Form H                  :      0.000u      0.000s      0.000w      1 calls
HF: Form S/X                :      0.000u      0.000s      0.000w      1 calls
HF: Guess                   :      0.033u      0.000s      0.018w      1 calls
| SAD Guess                 :      0.017u      0.000s      0.017w      1 calls
HF: Form G                  :      0.000u      0.000s      0.000w      3 calls
| JK: D                     :      0.000u      0.000s      0.000w      3 calls
| JK: USO2AO                :      0.000u      0.000s      0.000w      3 calls
| JK: JK                    :      0.000u      0.000s      0.000w      3 calls
| | DFH: compute_JK()       :      0.000u      0.000s      0.000w      3 calls
| | | DFH: Grabbing AOs     :      0.000u      0.000s      0.000w      3 calls
| | | DFH: compute_J        :      0.000u      0.000s      0.000w      3 calls
| | | DFH: compute_K        :      0.000u      0.000s      0.000w      3 calls
| JK: AO2USO                :      0.000u      0.000s      0.000w      3 calls
HF: Form F                  :      0.000u      0.000s      0.000w      3 calls
HF: DIIS                    :      0.000u      0.000s      0.000w      3 calls
| DIISManager::add_entry    :      0.000u      0.000s      0.000w      2 calls
| DIISManager::extrapolate  :      0.000u      0.000s      0.000w      1 calls
| | bMatrix setup           :      0.000u      0.000s      0.000w      1 calls
| | bMatrix pseudoinverse   :      0.000u      0.000s      0.000w      1 calls
| | New vector              :      0.000u      0.000s      0.000w      1 calls
HF: Form C                  :      0.000u      0.000s      0.000w      3 calls
HF: Form D                  :      0.000u      0.000s      0.000w      3 calls

***********************************************************

Host: hrgrimsl-XPS-13-9370

Timers On : Wed Jul 10 13:35:08 2019
Timers Off: Wed Jul 10 13:35:09 2019

Wall Time:        0.65 seconds

DFH: initialize()           :      0.017u      0.000s      0.015w      1 calls
DFH: sparsity prep          :      0.017u      0.000s      0.004w      1 calls
DFH: AO Construction        :      0.000u      0.000s      0.000w      1 calls
DFH: AO-Met. Contraction    :      0.000u      0.000s      0.000w      1 calls
HF: Form H                  :      0.000u      0.000s      0.001w      1 calls
HF: Form S/X                :      0.000u      0.000s      0.000w      1 calls
HF: Guess                   :      0.033u      0.000s      0.018w      1 calls
SAD Guess                   :      0.033u      0.000s      0.016w      1 calls
HF: Form G                  :      0.000u      0.000s      0.000w      3 calls
JK: D                       :      0.000u      0.000s      0.000w      3 calls
JK: USO2AO                  :      0.000u      0.000s      0.000w      3 calls
JK: JK                      :      0.000u      0.000s      0.000w      3 calls
DFH: compute_JK()           :      0.000u      0.000s      0.000w      3 calls
DFH: Grabbing AOs           :      0.000u      0.000s      0.000w      3 calls
DFH: compute_J              :      0.000u      0.000s      0.000w      3 calls
DFH: compute_K              :      0.000u      0.000s      0.000w      3 calls
JK: AO2USO                  :      0.000u      0.000s      0.000w      3 calls
HF: Form F                  :      0.000u      0.000s      0.000w      3 calls
HF: DIIS                    :      0.000u      0.000s      0.000w      3 calls
DIISManager::add_entry      :      0.000u      0.000s      0.000w      2 calls
DIISManager::extrapolate    :      0.000u      0.000s      0.000w      1 calls
bMatrix setup               :      0.000u      0.000s      0.000w      1 calls
bMatrix pseudoinverse       :      0.000u      0.000s      0.000w      1 calls
New vector                  :      0.000u      0.000s      0.000w      1 calls
HF: Form C                  :      0.000u      0.000s      0.000w      3 calls
HF: Form D                  :      0.000u      0.000s      0.000w      3 calls

-----------------------------------------------------------
DFH: initialize()           :      0.017u      0.000s      0.015w      1 calls
| DFH: sparsity prep        :      0.017u      0.000s      0.004w      1 calls
| DFH: AO Construction      :      0.000u      0.000s      0.000w      1 calls
| DFH: AO-Met. Contraction  :      0.000u      0.000s      0.000w      1 calls
HF: Form H                  :      0.000u      0.000s      0.001w      1 calls
HF: Form S/X                :      0.000u      0.000s      0.000w      1 calls
HF: Guess                   :      0.033u      0.000s      0.018w      1 calls
| SAD Guess                 :      0.033u      0.000s      0.016w      1 calls
HF: Form G                  :      0.000u      0.000s      0.000w      3 calls
| JK: D                     :      0.000u      0.000s      0.000w      3 calls
| JK: USO2AO                :      0.000u      0.000s      0.000w      3 calls
| JK: JK                    :      0.000u      0.000s      0.000w      3 calls
| | DFH: compute_JK()       :      0.000u      0.000s      0.000w      3 calls
| | | DFH: Grabbing AOs     :      0.000u      0.000s      0.000w      3 calls
| | | DFH: compute_J        :      0.000u      0.000s      0.000w      3 calls
| | | DFH: compute_K        :      0.000u      0.000s      0.000w      3 calls
| JK: AO2USO                :      0.000u      0.000s      0.000w      3 calls
HF: Form F                  :      0.000u      0.000s      0.000w      3 calls
HF: DIIS                    :      0.000u      0.000s      0.000w      3 calls
| DIISManager::add_entry    :      0.000u      0.000s      0.000w      2 calls
| DIISManager::extrapolate  :      0.000u      0.000s      0.000w      1 calls
| | bMatrix setup           :      0.000u      0.000s      0.000w      1 calls
| | bMatrix pseudoinverse   :      0.000u      0.000s      0.000w      1 calls
| | New vector              :      0.000u      0.000s      0.000w      1 calls
HF: Form C                  :      0.000u      0.000s      0.000w      3 calls
HF: Form D                  :      0.000u      0.000s      0.000w      3 calls

***********************************************************

Host: hrgrimsl-XPS-13-9370

Timers On : Wed Jul 10 13:35:47 2019
Timers Off: Wed Jul 10 13:35:47 2019

Wall Time:        0.67 seconds

DFH: initialize()           :      0.050u      0.000s      0.029w      1 calls
DFH: sparsity prep          :      0.000u      0.000s      0.005w      1 calls
DFH: AO Construction        :      0.000u      0.000s      0.000w      1 calls
DFH: AO-Met. Contraction    :      0.000u      0.000s      0.000w      1 calls
HF: Form H                  :      0.000u      0.000s      0.000w      1 calls
HF: Form S/X                :      0.000u      0.000s      0.000w      1 calls
HF: Guess                   :      0.033u      0.000s      0.019w      1 calls
SAD Guess                   :      0.033u      0.000s      0.017w      1 calls
HF: Form G                  :      0.000u      0.000s      0.000w      3 calls
JK: D                       :      0.000u      0.000s      0.000w      3 calls
JK: USO2AO                  :      0.000u      0.000s      0.000w      3 calls
JK: JK                      :      0.000u      0.000s      0.000w      3 calls
DFH: compute_JK()           :      0.000u      0.000s      0.000w      3 calls
DFH: Grabbing AOs           :      0.000u      0.000s      0.000w      3 calls
DFH: compute_J              :      0.000u      0.000s      0.000w      3 calls
DFH: compute_K              :      0.000u      0.000s      0.000w      3 calls
JK: AO2USO                  :      0.000u      0.000s      0.000w      3 calls
HF: Form F                  :      0.000u      0.000s      0.000w      3 calls
HF: DIIS                    :      0.000u      0.000s      0.000w      3 calls
DIISManager::add_entry      :      0.000u      0.000s      0.000w      2 calls
DIISManager::extrapolate    :      0.000u      0.000s      0.000w      1 calls
bMatrix setup               :      0.000u      0.000s      0.000w      1 calls
bMatrix pseudoinverse       :      0.000u      0.000s      0.000w      1 calls
New vector                  :      0.000u      0.000s      0.000w      1 calls
HF: Form C                  :      0.000u      0.000s      0.000w      3 calls
HF: Form D                  :      0.000u      0.000s      0.000w      3 calls

-----------------------------------------------------------
DFH: initialize()           :      0.050u      0.000s      0.029w      1 calls
| DFH: sparsity prep        :      0.000u      0.000s      0.005w      1 calls
| DFH: AO Construction      :      0.000u      0.000s      0.000w      1 calls
| DFH: AO-Met. Contraction  :      0.000u      0.000s      0.000w      1 calls
HF: Form H                  :      0.000u      0.000s      0.000w      1 calls
HF: Form S/X                :      0.000u      0.000s      0.000w      1 calls
HF: Guess                   :      0.033u      0.000s      0.019w      1 calls
| SAD Guess                 :      0.033u      0.000s      0.017w      1 calls
HF: Form G                  :      0.000u      0.000s      0.000w      3 calls
| JK: D                     :      0.000u      0.000s      0.000w      3 calls
| JK: USO2AO                :      0.000u      0.000s      0.000w      3 calls
| JK: JK                    :      0.000u      0.000s      0.000w      3 calls
| | DFH: compute_JK()       :      0.000u      0.000s      0.000w      3 calls
| | | DFH: Grabbing AOs     :      0.000u      0.000s      0.000w      3 calls
| | | DFH: compute_J        :      0.000u      0.000s      0.000w      3 calls
| | | DFH: compute_K        :      0.000u      0.000s      0.000w      3 calls
| JK: AO2USO                :      0.000u      0.000s      0.000w      3 calls
HF: Form F                  :      0.000u      0.000s      0.000w      3 calls
HF: DIIS                    :      0.000u      0.000s      0.000w      3 calls
| DIISManager::add_entry    :      0.000u      0.000s      0.000w      2 calls
| DIISManager::extrapolate  :      0.000u      0.000s      0.000w      1 calls
| | bMatrix setup           :      0.000u      0.000s      0.000w      1 calls
| | bMatrix pseudoinverse   :      0.000u      0.000s      0.000w      1 calls
| | New vector              :      0.000u      0.000s      0.000w      1 calls
HF: Form C                  :      0.000u      0.000s      0.000w      3 calls
HF: Form D                  :      0.000u      0.000s      0.000w      3 calls

***********************************************************

Host: hrgrimsl-XPS-13-9370

Timers On : Wed Jul 10 13:36:48 2019
Timers Off: Wed Jul 10 13:36:49 2019

Wall Time:        0.71 seconds

DFH: initialize()           :      0.050u      0.017s      0.028w      1 calls
DFH: sparsity prep          :      0.017u      0.017s      0.005w      1 calls
DFH: AO Construction        :      0.000u      0.000s      0.000w      1 calls
DFH: AO-Met. Contraction    :      0.000u      0.000s      0.000w      1 calls
HF: Form H                  :      0.000u      0.000s      0.000w      1 calls
HF: Form S/X                :      0.000u      0.000s      0.000w      1 calls
HF: Guess                   :      0.033u      0.000s      0.018w      1 calls
SAD Guess                   :      0.033u      0.000s      0.016w      1 calls
HF: Form G                  :      0.000u      0.000s      0.000w      3 calls
JK: D                       :      0.000u      0.000s      0.000w      3 calls
JK: USO2AO                  :      0.000u      0.000s      0.000w      3 calls
JK: JK                      :      0.000u      0.000s      0.000w      3 calls
DFH: compute_JK()           :      0.000u      0.000s      0.000w      3 calls
DFH: Grabbing AOs           :      0.000u      0.000s      0.000w      3 calls
DFH: compute_J              :      0.000u      0.000s      0.000w      3 calls
DFH: compute_K              :      0.000u      0.000s      0.000w      3 calls
JK: AO2USO                  :      0.000u      0.000s      0.000w      3 calls
HF: Form F                  :      0.000u      0.000s      0.000w      3 calls
HF: DIIS                    :      0.000u      0.000s      0.000w      3 calls
DIISManager::add_entry      :      0.000u      0.000s      0.000w      2 calls
DIISManager::extrapolate    :      0.000u      0.000s      0.000w      1 calls
bMatrix setup               :      0.000u      0.000s      0.000w      1 calls
bMatrix pseudoinverse       :      0.000u      0.000s      0.000w      1 calls
New vector                  :      0.000u      0.000s      0.000w      1 calls
HF: Form C                  :      0.000u      0.000s      0.000w      3 calls
HF: Form D                  :      0.000u      0.000s      0.000w      3 calls

-----------------------------------------------------------
DFH: initialize()           :      0.050u      0.017s      0.028w      1 calls
| DFH: sparsity prep        :      0.017u      0.017s      0.005w      1 calls
| DFH: AO Construction      :      0.000u      0.000s      0.000w      1 calls
| DFH: AO-Met. Contraction  :      0.000u      0.000s      0.000w      1 calls
HF: Form H                  :      0.000u      0.000s      0.000w      1 calls
HF: Form S/X                :      0.000u      0.000s      0.000w      1 calls
HF: Guess                   :      0.033u      0.000s      0.018w      1 calls
| SAD Guess                 :      0.033u      0.000s      0.016w      1 calls
HF: Form G                  :      0.000u      0.000s      0.000w      3 calls
| JK: D                     :      0.000u      0.000s      0.000w      3 calls
| JK: USO2AO                :      0.000u      0.000s      0.000w      3 calls
[...]
HF: Form G                  :      0.000u      0.000s      0.000w      6 calls
JK: D                       :      0.000u      0.000s      0.000w      6 calls
JK: USO2AO                  :      0.000u      0.000s      0.000w      6 calls
JK: JK                      :      0.000u      0.000s      0.000w      6 calls
PK computes JK              :      0.000u      0.000s      0.000w      6 calls
JK: AO2USO                  :      0.000u      0.000s      0.000w      6 calls
HF: Form F                  :      0.000u      0.000s      0.000w      6 calls
HF: DIIS                    :      0.000u      0.000s      0.000w      6 calls
DIISManager::add_entry      :      0.000u      0.000s      0.000w      5 calls
DIISManager::extrapolate    :      0.000u      0.000s      0.000w      4 calls
bMatrix setup               :      0.000u      0.000s      0.000w      4 calls
bMatrix pseudoinverse       :      0.000u      0.000s      0.000w      4 calls
New vector                  :      0.000u      0.000s      0.000w      4 calls
HF: Form C                  :      0.000u      0.000s      0.000w      6 calls
HF: Form D                  :      0.000u      0.000s      0.000w      6 calls

-----------------------------------------------------------
Total PK formation time     :      0.000u      0.000s      0.007w      1 calls
HF: Form H                  :      0.000u      0.000s      0.000w      1 calls
HF: Form S/X                :      0.000u      0.000s      0.000w      1 calls
HF: Guess                   :      0.033u      0.000s      0.018w      1 calls
| SAD Guess                 :      0.033u      0.000s      0.016w      1 calls
HF: Form G                  :      0.000u      0.000s      0.000w      6 calls
| JK: D                     :      0.000u      0.000s      0.000w      6 calls
| JK: USO2AO                :      0.000u      0.000s      0.000w      6 calls
| JK: JK                    :      0.000u      0.000s      0.000w      6 calls
| | PK computes JK          :      0.000u      0.000s      0.000w      6 calls
| JK: AO2USO                :      0.000u      0.000s      0.000w      6 calls
HF: Form F                  :      0.000u      0.000s      0.000w      6 calls
HF: DIIS                    :      0.000u      0.000s      0.000w      6 calls
| DIISManager::add_entry    :      0.000u      0.000s      0.000w      5 calls
| DIISManager::extrapolate  :      0.000u      0.000s      0.000w      4 calls
| | bMatrix setup           :      0.000u      0.000s      0.000w      4 calls
| | bMatrix pseudoinverse   :      0.000u      0.000s      0.000w      4 calls
| | New vector              :      0.000u      0.000s      0.000w      4 calls
HF: Form C                  :      0.000u      0.000s      0.000w      6 calls
HF: Form D                  :      0.000u      0.000s      0.000w      6 calls

***********************************************************

Host: hrgrimsl-XPS-13-9370

Timers On : Mon Jul 15 17:50:42 2019
Timers Off: Mon Jul 15 17:50:43 2019

Wall Time:        0.64 seconds

Total PK formation time     :      0.017u      0.000s      0.007w      1 calls
HF: Form H                  :      0.000u      0.000s      0.000w      1 calls
HF: Form S/X                :      0.000u      0.000s      0.000w      1 calls
HF: Guess                   :      0.033u      0.000s      0.018w      1 calls
SAD Guess                   :      0.033u      0.000s      0.017w      1 calls
HF: Form G                  :      0.000u      0.000s      0.000w      6 calls
JK: D                       :      0.000u      0.000s      0.000w      6 calls
JK: USO2AO                  :      0.000u      0.000s      0.000w      6 calls
JK: JK                      :      0.000u      0.000s      0.000w      6 calls
PK computes JK              :      0.000u      0.000s      0.000w      6 calls
JK: AO2USO                  :      0.000u      0.000s      0.000w      6 calls
HF: Form F                  :      0.000u      0.000s      0.000w      6 calls
HF: DIIS                    :      0.000u      0.000s      0.000w      6 calls
DIISManager::add_entry      :      0.000u      0.000s      0.000w      5 calls
DIISManager::extrapolate    :      0.000u      0.000s      0.000w      4 calls
bMatrix setup               :      0.000u      0.000s      0.000w      4 calls
bMatrix pseudoinverse       :      0.000u      0.000s      0.000w      4 calls
New vector                  :      0.000u      0.000s      0.000w      4 calls
HF: Form C                  :      0.000u      0.000s      0.000w      6 calls
HF: Form D                  :      0.000u      0.000s      0.000w      6 calls

-----------------------------------------------------------
Total PK formation time     :      0.017u      0.000s      0.007w      1 calls
HF: Form H                  :      0.000u      0.000s      0.000w      1 calls
HF: Form S/X                :      0.000u      0.000s      0.000w      1 calls
HF: Guess                   :      0.033u      0.000s      0.018w      1 calls
| SAD Guess                 :      0.033u      0.000s      0.017w      1 calls
HF: Form G                  :      0.000u      0.000s      0.000w      6 calls
| JK: D                     :      0.000u      0.000s      0.000w      6 calls
| JK: USO2AO                :      0.000u      0.000s      0.000w      6 calls
| JK: JK                    :      0.000u      0.000s      0.000w      6 calls
| | PK computes JK          :      0.000u      0.000s      0.000w      6 calls
| JK: AO2USO                :      0.000u      0.000s      0.000w      6 calls
HF: Form F                  :      0.000u      0.000s      0.000w      6 calls
HF: DIIS                    :      0.000u      0.000s      0.000w      6 calls
| DIISManager::add_entry    :      0.000u      0.000s      0.000w      5 calls
| DIISManager::extrapolate  :      0.000u      0.000s      0.000w      4 calls
| | bMatrix setup           :      0.000u      0.000s      0.000w      4 calls
| | bMatrix pseudoinverse   :      0.000u      0.000s      0.000w      4 calls
| | New vector              :      0.000u      0.000s      0.000w      4 calls
HF: Form C                  :      0.000u      0.000s      0.000w      6 calls
HF: Form D                  :      0.000u      0.000s      0.000w      6 calls

***********************************************************

Host: hrgrimsl-XPS-13-9370

Timers On : Mon Jul 15 17:51:14 2019
Timers Off: Mon Jul 15 17:51:15 2019

Wall Time:        0.65 seconds

Total PK formation time     :      0.017u      0.000s      0.014w      1 calls
HF: Form H                  :      0.000u      0.000s      0.001w      1 calls
HF: Form S/X                :      0.000u      0.000s      0.000w      1 calls
HF: Guess                   :      0.033u      0.000s      0.023w      1 calls
SAD Guess                   :      0.033u      0.000s      0.020w      1 calls
HF: Form G                  :      0.000u      0.000s      0.000w      6 calls
JK: D                       :      0.000u      0.000s      0.000w      6 calls
JK: USO2AO                  :      0.000u      0.000s      0.000w      6 calls
JK: JK                      :      0.000u      0.000s      0.000w      6 calls
PK computes JK              :      0.000u      0.000s      0.000w      6 calls
JK: AO2USO                  :      0.000u      0.000s      0.000w      6 calls
HF: Form F                  :      0.000u      0.000s      0.000w      6 calls
HF: DIIS                    :      0.000u      0.000s      0.000w      6 calls
DIISManager::add_entry      :      0.000u      0.000s      0.000w      5 calls
DIISManager::extrapolate    :      0.000u      0.000s      0.000w      4 calls
bMatrix setup               :      0.000u      0.000s      0.000w      4 calls
bMatrix pseudoinverse       :      0.000u      0.000s      0.000w      4 calls
New vector                  :      0.000u      0.000s      0.000w      4 calls
HF: Form C                  :      0.000u      0.000s      0.000w      6 calls
HF: Form D                  :      0.000u      0.000s      0.000w      6 calls

-----------------------------------------------------------
Total PK formation time     :      0.017u      0.000s      0.014w      1 calls
HF: Form H                  :      0.000u      0.000s      0.001w      1 calls
HF: Form S/X                :      0.000u      0.000s      0.000w      1 calls
HF: Guess                   :      0.033u      0.000s      0.023w      1 calls
| SAD Guess                 :      0.033u      0.000s      0.020w      1 calls
HF: Form G                  :      0.000u      0.000s      0.000w      6 calls
| JK: D                     :      0.000u      0.000s      0.000w      6 calls
| JK: USO2AO                :      0.000u      0.000s      0.000w      6 calls
| JK: JK                    :      0.000u      0.000s      0.000w      6 calls
| | PK computes JK          :      0.000u      0.000s      0.000w      6 calls
| JK: AO2USO                :      0.000u      0.000s      0.000w      6 calls
HF: Form F                  :      0.000u      0.000s      0.000w      6 calls
HF: DIIS                    :      0.000u      0.000s      0.000w      6 calls
| DIISManager::add_entry    :      0.000u      0.000s      0.000w      5 calls
| DIISManager::extrapolate  :      0.000u      0.000s      0.000w      4 calls
| | bMatrix setup           :      0.000u      0.000s      0.000w      4 calls
| | bMatrix pseudoinverse   :      0.000u      0.000s      0.000w      4 calls
| | New vector              :      0.000u      0.000s      0.000w      4 calls
HF: Form C                  :      0.000u      0.000s      0.000w      6 calls
HF: Form D                  :      0.000u      0.000s      0.000w      6 calls

***********************************************************

Host: hrgrimsl-XPS-13-9370

Timers On : Mon Jul 15 17:51:29 2019
Timers Off: Mon Jul 15 17:51:29 2019

Wall Time:        0.63 seconds

Total PK formation time     :      0.017u      0.000s      0.006w      1 calls
HF: Form H                  :      0.000u      0.000s      0.000w      1 calls
HF: Form S/X                :      0.000u      0.000s      0.000w      1 calls
HF: Guess                   :      0.017u      0.000s      0.017w      1 calls
SAD Guess                   :      0.017u      0.000s      0.016w      1 calls
HF: Form G                  :      0.000u      0.000s      0.000w      6 calls
JK: D                       :      0.000u      0.000s      0.000w      6 calls
JK: USO2AO                  :      0.000u      0.000s      0.000w      6 calls
JK: JK                      :      0.000u      0.000s      0.000w      6 calls
PK computes JK              :      0.000u      0.000s      0.000w      6 calls
JK: AO2USO                  :      0.000u      0.000s      0.000w      6 calls
HF: Form F                  :      0.000u      0.000s      0.000w      6 calls
HF: DIIS                    :      0.000u      0.000s      0.000w      6 calls
DIISManager::add_entry      :      0.000u      0.000s      0.000w      5 calls
DIISManager::extrapolate    :      0.000u      0.000s      0.000w      4 calls
bMatrix setup               :      0.000u      0.000s      0.000w      4 calls
bMatrix pseudoinverse       :      0.000u      0.000s      0.000w      4 calls
New vector                  :      0.000u      0.000s      0.000w      4 calls
HF: Form C                  :      0.000u      0.000s      0.000w      6 calls
HF: Form D                  :      0.000u      0.000s      0.000w      6 calls

-----------------------------------------------------------
Total PK formation time     :      0.017u      0.000s      0.006w      1 calls
HF: Form H                  :      0.000u      0.000s      0.000w      1 calls
HF: Form S/X                :      0.000u      0.000s      0.000w      1 calls
HF: Guess                   :      0.017u      0.000s      0.017w      1 calls
| SAD Guess                 :      0.017u      0.000s      0.016w      1 calls
HF: Form G                  :      0.000u      0.000s      0.000w      6 calls
| JK: D                     :      0.000u      0.000s      0.000w      6 calls
| JK: USO2AO                :      0.000u      0.000s      0.000w      6 calls
| JK: JK                    :      0.000u      0.000s      0.000w      6 calls
| | PK computes JK          :      0.000u      0.000s      0.000w      6 calls
| JK: AO2USO                :      0.000u      0.000s      0.000w      6 calls
HF: Form F                  :      0.000u      0.000s      0.000w      6 calls
HF: DIIS                    :      0.000u      0.000s      0.000w      6 calls
| DIISManager::add_entry    :      0.000u      0.000s      0.000w      5 calls
| DIISManager::extrapolate  :      0.000u      0.000s      0.000w      4 calls
| | bMatrix setup           :      0.000u      0.000s      0.000w      4 calls
| | bMatrix pseudoinverse   :      0.000u      0.000s      0.000w      4 calls
| | New vector              :      0.000u      0.000s      0.000w      4 calls
HF: Form C                  :      0.000u      0.000s      0.000w      6 calls
HF: Form D                  :      0.000u      0.000s      0.000w      6 calls

***********************************************************

Host: hrgrimsl-XPS-13-9370

Timers On : Tue Jul 16 09:22:52 2019
Timers Off: Tue Jul 16 09:22:52 2019

Wall Time:        0.68 seconds

Total PK formation time     :      0.017u      0.000s      0.008w      1 calls
HF: Form H                  :      0.000u      0.000s      0.000w      1 calls
HF: Form S/X                :      0.000u      0.000s      0.000w      1 calls
HF: Guess                   :      0.033u      0.000s      0.020w      1 calls
SAD Guess                   :      0.033u      0.000s      0.018w      1 calls
HF: Form G                  :      0.000u      0.000s      0.000w      6 calls
JK: D                       :      0.000u      0.000s      0.000w      6 calls
JK: USO2AO                  :      0.000u      0.000s      0.000w      6 calls
JK: JK                      :      0.000u      0.000s      0.000w      6 calls
PK computes JK              :      0.000u      0.000s      0.000w      6 calls
JK: AO2USO                  :      0.000u      0.000s      0.000w      6 calls
HF: Form F                  :      0.000u      0.000s      0.000w      6 calls
HF: DIIS                    :      0.000u      0.000s      0.000w      6 calls
DIISManager::add_entry      :      0.000u      0.000s      0.000w      5 calls
DIISManager::extrapolate    :      0.000u      0.000s      0.000w      4 calls
bMatrix setup               :      0.000u      0.000s      0.000w      4 calls
bMatrix pseudoinverse       :      0.000u      0.000s      0.000w      4 calls
New vector                  :      0.000u      0.000s      0.000w      4 calls
HF: Form C                  :      0.000u      0.000s      0.000w      6 calls
HF: Form D                  :      0.000u      0.000s      0.000w      6 calls

-----------------------------------------------------------
Total PK formation time     :      0.017u      0.000s      0.008w      1 calls
HF: Form H                  :      0.000u      0.000s      0.000w      1 calls
HF: Form S/X                :      0.000u      0.000s      0.000w      1 calls
HF: Guess                   :      0.033u      0.000s      0.020w      1 calls
| SAD Guess                 :      0.033u      0.000s      0.018w      1 calls
HF: Form G                  :      0.000u      0.000s      0.000w      6 calls
| JK: D                     :      0.000u      0.000s      0.000w      6 calls
| JK: USO2AO                :      0.000u      0.000s      0.000w      6 calls
| JK: JK                    :      0.000u      0.000s      0.000w      6 calls
| | PK computes JK          :      0.000u      0.000s      0.000w      6 calls
| JK: AO2USO                :      0.000u      0.000s      0.000w      6 calls
HF: Form F                  :      0.000u      0.000s      0.000w      6 calls
HF: DIIS                    :      0.000u      0.000s      0.000w      6 calls
| DIISManager::add_entry    :      0.000u      0.000s      0.000w      5 calls
| DIISManager::extrapolate  :      0.000u      0.000s      0.000w      4 calls
| | bMatrix setup           :      0.000u      0.000s      0.000w      4 calls
| | bMatrix pseudoinverse   :      0.000u      0.000s      0.000w      4 calls
| | New vector              :      0.000u      0.000s      0.000w      4 calls
HF: Form C                  :      0.000u      0.000s      0.000w      6 calls
HF: Form D                  :      0.000u      0.000s      0.000w      6 calls

***********************************************************

Host: hrgrimsl-XPS-13-9370

Timers On : Tue Jul 16 09:23:28 2019
Timers Off: Tue Jul 16 09:23:29 2019

Wall Time:        0.66 seconds

Total PK formation time     :      0.000u      0.000s      0.007w      1 calls
HF: Form H                  :      0.000u      0.000s      0.002w      1 calls
HF: Form S/X                :      0.000u      0.000s      0.000w      1 calls
HF: Guess                   :      0.033u      0.000s      0.019w      1 calls
SAD Guess                   :      0.017u      0.000s      0.018w      1 calls
HF: Form G                  :      0.000u      0.000s      0.000w      6 calls
JK: D                       :      0.000u      0.000s      0.000w      6 calls
JK: USO2AO                  :      0.000u      0.000s      0.000w      6 calls
JK: JK                      :      0.000u      0.000s      0.000w      6 calls
PK computes JK              :      0.000u      0.000s      0.000w      6 calls
JK: AO2USO                  :      0.000u      0.000s      0.000w      6 calls
HF: Form F                  :      0.000u      0.000s      0.000w      6 calls
HF: DIIS                    :      0.000u      0.000s      0.000w      6 calls
DIISManager::add_entry      :      0.000u      0.000s      0.000w      5 calls
DIISManager::extrapolate    :      0.000u      0.000s      0.000w      4 calls
bMatrix setup               :      0.000u      0.000s      0.000w      4 calls
bMatrix pseudoinverse       :      0.000u      0.000s      0.000w      4 calls
New vector                  :      0.000u      0.000s      0.000w      4 calls
HF: Form C                  :      0.000u      0.000s      0.000w      6 calls
HF: Form D                  :      0.000u      0.000s      0.000w      6 calls

-----------------------------------------------------------
Total PK formation time     :      0.000u      0.000s      0.007w      1 calls
HF: Form H                  :      0.000u      0.000s      0.002w      1 calls
HF: Form S/X                :      0.000u      0.000s      0.000w      1 calls
HF: Guess                   :      0.033u      0.000s      0.019w      1 calls
| SAD Guess                 :      0.017u      0.000s      0.018w      1 calls
HF: Form G                  :      0.000u      0.000s      0.000w      6 calls
| JK: D                     :      0.000u      0.000s      0.000w      6 calls
| JK: USO2AO                :      0.000u      0.000s      0.000w      6 calls
| JK: JK                    :      0.000u      0.000s      0.000w      6 calls
| | PK computes JK          :      0.000u      0.000s      0.000w      6 calls
| JK: AO2USO                :      0.000u      0.000s      0.000w      6 calls
HF: Form F                  :      0.000u      0.000s      0.000w      6 calls
HF: DIIS                    :      0.000u      0.000s      0.000w      6 calls
| DIISManager::add_entry    :      0.000u      0.000s      0.000w      5 calls
| DIISManager::extrapolate  :      0.000u      0.000s      0.000w      4 calls
| | bMatrix setup           :      0.000u      0.000s      0.000w      4 calls
| | bMatrix pseudoinverse   :      0.000u      0.000s      0.000w      4 calls
| | New vector              :      0.000u      0.000s      0.000w      4 calls
HF: Form C                  :      0.000u      0.000s      0.000w      6 calls
HF: Form D                  :      0.000u      0.000s      0.000w      6 calls

***********************************************************
