
Host: hrgrimsl-XPS-13-9370

Timers On : Wed Nov 20 19:51:39 2019
Timers Off: Wed Nov 20 19:51:40 2019

Wall Time:        0.49 seconds


-----------------------------------------------------------

***********************************************************
